<?xml version="1.0" encoding="UTF-8"?>

<!-- generated on 2022-05-26 22:50:10 by Eclipse SUMO GUI Version 1.13.0
<configuration xmlns:xsi="http://www.w3.org/2001/XMLSchema-instance" xsi:noNamespaceSchemaLocation="http://sumo.dlr.de/xsd/sumoConfiguration.xsd">

    <input>
        <net-file value="/Users/behradkoohy/PycharmProjects/routePlanning/sumo-scenarios/bologna/joined/joined_buslanes.net.xml"/>
        <route-files value="/Users/behradkoohy/PycharmProjects/routePlanning/sumo-scenarios/bologna/joined/joined.rou.xml,/Users/behradkoohy/PycharmProjects/routePlanning/sumo-scenarios/bologna/joined/joined_busses.rou.xml"/>
        <additional-files value="/Users/behradkoohy/PycharmProjects/routePlanning/sumo-scenarios/bologna/joined/joined_bus_stops.add.xml,/Users/behradkoohy/PycharmProjects/routePlanning/sumo-scenarios/bologna/joined/joined_detectors.add.xml,/Users/behradkoohy/PycharmProjects/routePlanning/sumo-scenarios/bologna/joined/joined_vtypes.add.xml,/Users/behradkoohy/PycharmProjects/routePlanning/sumo-scenarios/bologna/joined/joined_tls.add.xml"/>
    </input>

    <output>
        <tripinfo-output value="/Users/behradkoohy/PycharmProjects/routePlanning/sumo-scenarios/bologna/joined/tripinfos.xml"/>
        <save-state.prefix value="/Users/behradkoohy/PycharmProjects/routePlanning/sumo-scenarios/bologna/joined/state"/>
    </output>

    <report>
        <log value="/Users/behradkoohy/PycharmProjects/routePlanning/sumo-scenarios/bologna/joined/sumo_log.txt"/>
        <no-step-log value="true"/>
    </report>

    <emissions>
        <phemlight-path value="/Users/behradkoohy/PycharmProjects/routePlanning/sumo-scenarios/bologna/joined/./PHEMlight/"/>
    </emissions>

</configuration>
-->

<tripinfos xmlns:xsi="http://www.w3.org/2001/XMLSchema-instance" xsi:noNamespaceSchemaLocation="http://sumo.dlr.de/xsd/tripinfo_file.xsd">
</tripinfos>
